LAMMPS data file via write_data, version 3 Mar 2020, timestep = 4093377

512 atoms
1 atom types

2.5871180611971489e-01 1.6960922593880969e+01 xlo xhi
2.2320101226086919e-01 1.6996433387739490e+01 ylo yhi
2.5184507963380653e-01 1.6967789320366329e+01 zlo zhi

Masses

1 12.011

Atoms # atomic

496 1 4.7505074225306565e-01 3.7623145645328417e+00 6.9175547349165123e-01 2 1 3
236 1 3.1358046847023626e+00 2.6235062526878097e+00 4.3343415059197774e+00 -2 2 -2
255 1 2.2193211071122878e+00 9.5793888348972500e-01 3.1458275276262593e+00 0 0 0
360 1 3.4003138040289480e+00 1.7516134736968436e+00 3.2097732224341611e+00 0 -1 2
248 1 3.1720670722778954e+00 3.9574242854940067e+00 3.8832101297710619e+00 1 1 0
373 1 2.1260107286605905e+00 4.5349896497958033e+00 6.5622117161512445e+00 1 3 -1
222 1 5.4465853785788232e-01 4.5311610221472703e-01 1.5038145627714161e+00 0 2 1
320 1 8.4487635788376381e-01 4.0097966409210350e+00 3.0343989985460240e+00 1 -1 0
132 1 1.7083675424693543e+00 9.8646964188122122e-01 4.5163161534051843e+00 0 0 2
266 1 2.2219263787315695e+00 4.3137589317673228e+00 2.9391202215290226e+00 0 -1 -1
343 1 3.4633154082990756e+00 1.3833959882170039e+00 7.5591228243361268e+00 2 1 -2
63 1 5.3381266483183176e-01 5.2599906346107810e+00 4.9942928310635617e+00 -2 0 1
151 1 2.5559356156341337e+00 5.1856338250131309e+00 1.8341940985079483e+00 1 2 0
251 1 3.0829223471545557e+00 4.9835416795730643e+00 5.5192241024083710e-01 -1 0 -1
112 1 8.1630737980274204e-01 4.6892227521050467e+00 6.2238715459146938e+00 0 2 -1
70 1 2.3289241639603957e+00 1.9761070803700558e+00 5.3273978817540453e+00 0 1 -2
336 1 2.5579464072932598e+00 3.4204540122229163e+00 7.2439778604906806e+00 2 1 0
19 1 2.7227851058281796e+00 2.1869557102676316e+00 6.6638069439062173e+00 0 3 0
177 1 4.3584545641385883e+00 5.6094415045765809e+00 6.3629166605599217e+00 -1 2 0
271 1 2.9876167202393753e+00 5.7062764998572675e+00 6.7377303307379952e+00 2 0 0
326 1 7.6484888159697419e+00 5.1230342130204845e+00 3.8047217750800519e+00 0 1 0
486 1 6.2493964346215360e+00 1.8680378890009899e+00 4.3539233120418119e-01 2 3 -1
219 1 5.6773515911440926e+00 5.9457397589537941e-01 5.8335811282487815e-01 1 0 -1
395 1 4.5886990872675790e+00 1.6641316049159238e+00 2.4855062677391704e+00 1 -1 2
301 1 7.3130469653111518e+00 3.0165170129581735e+00 4.8305468655140338e+00 0 1 1
425 1 6.8329540996591653e+00 4.0087018261807383e+00 4.0082756500326235e+00 0 -1 -1
96 1 7.7268533425185453e+00 1.8497775311439910e+00 4.1566952628126517e+00 -1 1 0
242 1 7.6117696917278437e+00 7.6426349627359103e-01 4.9774176701834421e+00 -1 0 1
491 1 4.6475018365080389e+00 5.6923724687903521e-01 1.5741337691916244e+00 2 2 0
392 1 5.5359562250079781e+00 3.8145831951388294e+00 3.4530099461935864e+00 1 0 0
31 1 5.5330750731980949e+00 2.7047220832283796e+00 2.5409010234873799e+00 2 1 0
202 1 6.5951337796195801e+00 2.4220486303694773e+00 1.6590141282877573e+00 1 1 0
400 1 8.0724749479976623e+00 1.9811753695928238e+00 6.9433440008655181e+00 -1 0 1
359 1 8.1993478902168633e+00 5.4417111097661950e+00 2.5299034362474879e+00 0 2 0
98 1 8.4269866381699217e+00 8.6224629625265947e-01 6.1382044187333724e+00 1 1 -1
183 1 7.9755057617987957e+00 2.5674838166883136e+00 1.8871756511549322e+00 -2 0 3
272 1 7.8907807089778998e+00 4.4343479125732612e+00 6.6987159979612070e+00 -1 1 0
346 1 8.4352931420648520e+00 5.5544652073295566e+00 6.0426071136822488e+00 0 0 -1
459 1 5.0984917503153167e+00 5.3499954972030030e+00 7.5570209430838435e+00 1 2 -1
86 1 7.7123433989854924e+00 3.1325884814093268e+00 6.2019348377935142e+00 -2 1 0
478 1 7.3497879878443975e+00 4.6779856718255308e+00 7.9356224299269655e+00 -2 -1 1
260 1 4.6293172219904113e+00 5.6566340574941982e+00 4.8702540891793067e+00 2 0 0
107 1 4.4398534181384157e+00 4.5179643763352626e+00 4.0226326958893575e+00 1 -1 0
470 1 2.5992592788305355e+00 6.3429988438403573e+00 7.9570765019821366e+00 2 0 -1
287 1 6.3942452381116075e+00 5.7182678853086015e+00 7.9241952245419283e+00 2 0 1
214 1 7.6197593345402188e+00 7.6588579428896226e+00 7.3058906347378718e+00 1 1 3
240 1 7.8687198126242128e+00 6.6936802254521783e+00 2.0339554272907403e+00 1 1 3
182 1 7.0219408838244064e+00 8.0842984805270248e+00 6.0545061101005366e+00 -1 -1 -1
252 1 6.7996786172094703e+00 7.5016055314428653e+00 2.5393725908483020e+00 1 0 2
264 1 3.5538880744637198e+00 7.5812163459765376e+00 3.9752034623516055e+00 0 -1 1
487 1 2.5046234127424376e+00 6.5426422942467992e+00 2.1129924297876705e+00 -1 0 -1
147 1 7.8445770721012416e+00 6.0022094819170890e+00 4.8499087164061017e+00 2 2 0
109 1 4.7703375388869089e+00 6.9343556331995666e+00 4.2072607633351815e+00 -4 -1 2
331 1 6.1566202442937472e+00 7.3000972432194944e+00 3.8306026328715044e+00 0 1 -1
500 1 1.1204288270475902e+00 7.2573225960024477e+00 3.8747212861092475e+00 -1 -1 1
233 1 7.1267922177780987e+00 7.1876862775619355e+00 4.9075322426374539e+00 -1 -1 1
72 1 2.9344694912627487e+00 7.4750948379850675e+00 9.8052375163434657e-01 1 1 0
226 1 2.4070684110499623e+00 6.9847377104563479e+00 3.3953019442417305e+00 0 -1 -2
229 1 5.2963030381424736e-01 6.6797761414712422e+00 5.0037688398596831e+00 2 0 1
23 1 3.9467894121529192e+00 8.4612505904141191e+00 1.5415530833488726e+00 1 1 0
83 1 5.1796038858986932e+00 8.3546540309409671e+00 9.6617662634979784e-01 1 0 1
129 1 6.3535104488598639e+00 8.5405267532539977e+00 1.6915477222645687e+00 1 -1 1
108 1 7.4917414706660179e-01 8.3606257192866273e+00 7.9401254464722131e+00 -1 1 -1
455 1 4.3464153782917359e-01 8.2612341673200724e+00 3.1638348698592234e+00 -2 1 0
99 1 3.6471141231358395e+00 1.2553104171586746e+01 6.0515556874418974e-01 1 -1 2
95 1 4.6296759227231759e+00 1.0926513260400034e+01 5.4933647185131731e+00 1 -1 1
440 1 4.1505740643340046e+00 1.0799829636789603e+01 2.2756175495449851e+00 -2 0 1
172 1 4.4491811410297002e+00 1.2184756364905834e+01 4.9119590646080544e+00 -1 -1 -1
120 1 3.7808762581183362e+00 9.4509212149878206e+00 2.5496883691755756e+00 1 1 0
39 1 5.4052658239191347e+00 1.1351200301742699e+01 2.7666249582834541e+00 -1 -1 0
235 1 5.3377185913455802e+00 1.2591895445691103e+01 3.9085014869045476e+00 -1 0 1
241 1 5.2104823360300734e-01 1.2650193298411331e+01 1.3923865391929562e+00 0 -2 -1
356 1 2.7260977574003009e+00 1.0923179183007335e+01 7.0826419385171206e+00 0 1 0
482 1 2.1950899263397607e+00 1.2726586592843720e+01 5.5323280527848437e+00 4 0 1
279 1 3.2430270359661567e-01 9.6357798182671477e+00 5.9187387846325441e+00 1 1 -1
227 1 3.4025085152083108e+00 1.0324363080900634e+01 5.9638458797693881e+00 1 0 2
24 1 2.1922741547559124e+00 1.2241373740974202e+01 6.8779137095529155e+00 0 -2 0
329 1 1.2903370318740728e+00 9.6928187145906843e+00 4.8823973375839058e+00 1 -1 -1
143 1 6.8921718356705319e-01 9.6034587671118636e+00 3.5610641430593373e+00 1 1 -1
285 1 3.4716378972190163e+00 9.0185155278015365e+00 3.8996443114399022e+00 -2 -2 -2
334 1 3.2515067534373245e+00 1.1468111428489591e+01 1.4687532000474393e+00 -2 1 1
20 1 1.9718483858111819e+00 1.0792675978435936e+01 1.2633812316633528e+00 -2 0 2
139 1 8.5806419191592398e-01 1.1411608061952041e+01 1.9287839598873278e+00 1 -1 1
292 1 1.8043046971102423e+00 9.5517995132459355e+00 5.8235460135938477e-01 0 -1 0
311 1 2.6964475966296981e+00 9.6705192855650512e+00 4.9667440648152459e+00 -1 1 -1
437 1 3.6867091281999538e+00 1.6780525767926942e+01 7.1379945227413577e+00 -1 -1 -1
218 1 3.8823030657621898e+00 1.6115820516619358e+01 1.5745850237150785e+00 0 -2 2
367 1 2.5291846382652654e+00 1.5894046715355993e+01 1.7433117598363923e+00 1 -2 1
324 1 8.4958603780480602e-01 1.6741132663747415e+01 4.9650099218923680e+00 2 -1 0
56 1 9.1806147869147225e-01 1.4400655960871061e+01 4.2236152497883053e+00 2 2 1
261 1 1.9994370252570466e+00 1.4575154378909737e+01 1.0871298499793935e+00 0 1 2
317 1 3.6209449331151700e-01 1.4550958391944780e+01 2.9709632490736628e+00 2 0 0
473 1 1.7228417939931238e+00 1.6944047909007143e+01 2.1391029644049167e+00 0 -1 1
295 1 1.4239728145241313e+00 1.5461850475855007e+01 4.9289478066208057e+00 0 -1 1
284 1 4.4427027674949100e+00 1.4940187657504136e+01 1.0813895178531523e+00 0 0 2
22 1 5.0380342019395670e+00 1.4844638597295729e+01 4.8828589311906008e+00 -1 0 -2
16 1 3.7285121068204861e+00 1.4419955983784318e+01 5.1278577671990933e+00 -1 -1 1
493 1 2.6794799549845014e+00 1.5840134576245182e+01 6.8626308723068989e+00 1 0 1
358 1 2.6722010812268331e+00 1.5310669368470574e+01 5.5614003117269242e+00 2 -1 0
9 1 5.0743276235036712e+00 1.6634248688924547e+01 6.6963502744206194e+00 0 0 -2
480 1 3.4654797932275287e+00 1.3115171895840378e+01 5.1193529891864920e+00 -1 -1 0
296 1 1.3016746964749104e+00 1.2990917778016776e+01 7.7235200709802765e+00 -1 1 1
253 1 1.5595779321200722e+00 1.5404107742932430e+01 7.6992801063847764e+00 1 1 -2
393 1 9.7664540384352216e-01 1.3862014581540780e+01 1.9438552657245929e+00 -1 -1 0
477 1 1.0522201620612344e+00 1.3112444993714650e+01 4.8177733124294191e+00 0 1 -2
339 1 3.4061640143598142e+00 1.3937200644293219e+01 9.1054945079272320e-01 2 0 0
293 1 6.5412162277993229e+00 1.3843714534650831e+01 5.4433000067497772e-01 1 -2 1
305 1 7.5830898061641046e+00 1.0325835551962882e+01 6.7076368408649873e+00 2 -1 2
283 1 6.6627721291876005e+00 9.5152084866592475e+00 5.9672531696135609e+00 -1 1 1
43 1 7.9261372467509599e+00 1.2613267279539199e+01 4.6388903774295871e+00 -4 -1 -1
322 1 8.3743101624382934e+00 1.0961289559438594e+01 2.7661386023839771e+00 0 0 0
443 1 6.3372643654856180e+00 1.0863416052850720e+01 3.9488502189322925e+00 0 -1 -1
41 1 5.7720047161140693e+00 1.0269506216471958e+01 5.0753352481811040e+00 1 0 1
429 1 6.3911231267137909e+00 1.1634330090862216e+01 1.6527970364904119e+00 0 0 -1
67 1 7.6311974302616790e+00 1.0825445254877478e+01 1.4679593610875368e+00 0 0 0
167 1 7.6440490865924504e+00 1.1470801046399274e+01 3.8117372012331301e+00 2 1 -1
135 1 5.9792482601575969e+00 1.2582882493047702e+01 7.2581517728210365e-01 0 0 0
414 1 7.4701380452017183e+00 9.3194736337496149e+00 1.0364135899982934e+00 0 -1 0
145 1 7.2849442618483735e+00 1.3870282110970649e+01 4.5741304863623631e+00 -1 -1 1
5 1 7.8973915244671566e+00 1.3619720831728861e+01 7.5631549590812712e+00 -1 0 2
75 1 6.0860510427686627e+00 1.6784182759066933e+01 7.7437736316953263e+00 1 -2 0
194 1 7.3055881770136910e+00 1.0703852728453265e+01 7.9999012995438665e+00 -1 0 -2
170 1 7.6641344492298469e+00 1.5178492932967101e+01 5.0182923148700480e+00 -1 0 0
412 1 8.3356541195896696e+00 1.5397751802879291e+01 6.2732981237446221e+00 2 -1 0
502 1 7.6911144721361655e+00 1.4983291307031507e+01 7.4033339530942515e+00 1 -1 0
21 1 5.7827169682993365e+00 1.4989497917880467e+01 5.5848467235098354e-01 -1 0 0
418 1 6.8271425435755244e+00 1.6342112821647021e+01 4.8357861947446308e+00 0 0 -1
268 1 5.8891456056565543e+00 1.3829115239844279e+01 4.2360067372784922e+00 0 -1 0
243 1 5.5171795518848130e+00 1.6070299550436545e+01 5.3329675979254292e+00 -1 -1 1
46 1 1.8324447635604688e+00 2.4484195429351452e+00 1.0823186420632281e+01 -1 0 0
150 1 1.3274108052124154e+00 3.6471375222302620e+00 1.0231487108861241e+01 1 0 -1
207 1 2.4924840464863283e+00 2.5641467988569056e+00 1.2091871037019654e+01 1 3 -2
238 1 3.3333405712402078e+00 3.6244408066580998e+00 8.6297454072221065e+00 1 -2 2
104 1 1.4346758420147911e+00 1.3005452087846394e+00 1.0071761918098126e+01 -1 1 -1
302 1 3.0314505236568063e+00 1.4652967426206829e+00 1.2772025077140098e+01 0 1 0
481 1 3.9634757450821145e-01 1.3974648306081225e+00 9.0111661500450815e+00 0 -1 -1
401 1 2.1663994393512978e+00 4.3360946181118178e+00 9.3693092174865811e+00 -2 -4 0
81 1 4.3532388351408873e+00 4.7453434392551541e+00 8.5942084167441148e+00 -1 1 2
448 1 1.6958972856654280e+00 5.5164441843691243e+00 8.7221534114788106e+00 1 -1 -1
61 1 4.3378465598965441e+00 6.4069148732806216e+00 1.0464647759665601e+01 0 1 -1
80 1 2.2296150468390117e+00 6.7186460011985956e+00 1.2614263321192746e+01 -1 0 0
58 1 3.4009252760572557e+00 5.9846171917442215e+00 1.2612357684470332e+01 0 2 0
479 1 4.7496914564095705e-01 5.2289664478288751e+00 1.3509270884777042e+01 2 1 -1
385 1 2.0803277119990913e+00 4.2906746175651012e-01 1.3036414117973628e+01 -1 1 -1
176 1 2.2913229833787905e+00 3.7106090145072925e+00 1.2922393947240268e+01 0 0 1
217 1 2.8852258869685310e-01 5.6011103077716378e+00 8.3697145310932175e+00 -1 -3 -1
121 1 3.4219642055926824e+00 4.6462301613260468e+00 1.3045645932427373e+01 0 2 0
82 1 4.1383509924622031e+00 2.1992436465330472e+00 8.5427426661262889e+00 0 0 -1
134 1 5.6273694390052516e+00 4.4094039056565100e+00 1.0554243985117036e+01 2 1 0
205 1 5.5919145815473303e+00 9.3443585119016070e-01 1.1672523632765239e+01 -1 -1 -3
224 1 5.3586167069570285e+00 1.8985518775147594e+00 1.0661951068296112e+01 1 -1 0
51 1 5.2582301106847629e+00 3.1581228129967664e+00 1.2598996403260905e+01 2 1 0
117 1 5.4975823390502248e+00 1.6999415359738752e+00 1.3152684721176819e+01 -2 0 1
105 1 7.6406783687328321e+00 4.0818185263992657e+00 9.2386213708388070e+00 0 -2 -1
428 1 8.1637922571815924e+00 2.7480478545077336e+00 9.3858982865914626e+00 2 0 -3
442 1 8.1686490317969316e+00 6.2010006514626808e+00 1.3023434131667962e+01 1 0 2
17 1 7.4644484261692083e+00 7.1331132538105528e+00 9.7126520472456139e+00 -2 0 0
141 1 5.7777558199116221e+00 6.5951333683701892e+00 1.2596711121715147e+01 0 -1 -1
388 1 7.2845256911059497e+00 6.1032657881401926e+00 1.0665094175503150e+01 1 0 0
330 1 7.0945379064416176e+00 6.3986410092946633e+00 1.2044051246674748e+01 0 3 1
38 1 6.9957968823608105e+00 4.7511480657330178e+00 1.0295703541830891e+01 -1 3 0
113 1 6.3822837074622933e+00 1.2185519413076111e+00 8.5170210339256780e+00 0 1 1
389 1 7.6502337838936141e+00 1.8580769072526873e+00 8.3388395659300905e+00 2 0 1
234 1 5.2310207011816967e+00 1.7380404546005992e+00 9.2950209798903174e+00 -1 1 1
499 1 5.3419709267949598e+00 3.1850863937895864e+00 1.1201343834258607e+01 1 1 -3
366 1 4.6926888004870095e+00 5.2180822626288084e+00 9.8388316725178981e+00 1 1 -3
29 1 4.5538841989855481e+00 6.3992005779038639e+00 1.1870889023843811e+01 0 0 -2
398 1 6.9431531763748664e+00 6.9650394327237617e+00 8.3711792669629936e+00 1 0 -2
111 1 4.6930817516416576e+00 4.0596186647783661e+00 1.3428826511909396e+01 3 4 -2
421 1 6.6836543379117561e+00 1.4183940658703200e+00 1.4141978559143729e+01 1 1 -1
124 1 6.2556140950798884e+00 2.7558031910272671e+00 1.6072813757052899e+01 0 0 -1
28 1 1.3056809675799566e+00 6.4171757265869278e+00 1.3689544176121293e+01 -1 -2 -1
247 1 7.2053805059823439e+00 2.3928929227969369e+00 1.4992880900307691e+01 1 1 2
262 1 8.1602065636768693e+00 6.9990949974369592e+00 1.4223058147207261e+01 1 -2 -2
250 1 5.8096097553932058e+00 6.7493402844497803e+00 1.4021834720422568e+01 1 -1 -2
142 1 8.5312953635424424e+00 2.9651787769626092e+00 1.5200946056975239e+01 1 2 -1
239 1 4.0571274750408683e+00 1.5845728289867551e+00 1.3772521470079218e+01 1 1 1
335 1 3.4191725434669973e+00 1.9275778471754499e+00 1.4951106828868053e+01 1 0 -1
101 1 3.5302966604321631e+00 6.2464562828582544e+00 1.6808734418262361e+01 0 1 -2
10 1 5.1232429688335879e+00 4.5158934806768638e+00 1.4652271138643188e+01 -2 -2 -2
372 1 4.6600475345887897e+00 6.5855748924256368e+00 1.6073082824736183e+01 1 -1 0
436 1 5.0445206260797999e+00 5.9527463251075057e+00 1.4913309257607450e+01 1 -1 1
203 1 1.6162479115195021e+00 4.2247152409377930e-01 1.4328101635670448e+01 1 2 -3
378 1 3.8124330780049167e+00 2.9200061521082232e+00 1.5948290910624150e+01 -1 0 0
161 1 2.9093999950058640e+00 3.7910097465267518e+00 1.6603874065697905e+01 -2 1 -1
90 1 2.0497349677649481e+00 1.5167918017064315e+00 1.5086919189691418e+01 1 1 2
216 1 3.0490434393271387e-01 3.1855354723410891e+00 1.4589316157109163e+01 1 0 -2
27 1 1.2052737380713472e+00 2.5574001004101103e+00 1.5461997228611443e+01 -3 -1 -2
88 1 1.5704341495656295e+00 3.2982893066170629e+00 1.6610314381400766e+01 0 2 0
200 1 5.1253339589273859e+00 3.4867604691337051e+00 1.5660234057550989e+01 -1 0 -1
50 1 1.0936296562621433e+00 3.9904767130708430e+00 1.3663783725278515e+01 0 0 0
508 1 3.0880364594045445e-01 9.6231285443889796e+00 1.1952095762705525e+01 1 -3 0
350 1 2.0932880649158698e+00 8.6859859022910459e+00 8.1362277967256809e+00 0 -1 -1
342 1 3.4760499265555722e-01 1.2106877818466279e+01 1.2027591123629469e+01 -1 -1 0
306 1 2.3586539614725055e+00 1.0098285632745050e+01 8.2258099123279536e+00 0 0 -1
465 1 2.9134345589386768e+00 8.4895523924047591e+00 1.0879852296415120e+01 0 0 0
377 1 7.2052040899282037e+00 1.3308401612390769e+01 1.2020878900585521e+01 1 0 -1
127 1 5.4912090157329629e-01 1.0927165496134448e+01 1.1428975754394767e+01 -1 0 0
85 1 2.8136788227137122e+00 9.9216424763479676e+00 1.0567531230780496e+01 0 1 -2
49 1 6.7605595943683294e-01 1.0839401427937183e+01 9.9447339500233785e+00 -1 -2 0
246 1 1.9453332493379281e+00 1.0530568416121264e+01 9.5503264680425222e+00 1 0 1
332 1 2.9217810792024546e+00 7.5997478786237913e+00 8.5629291821360258e+00 0 1 -2
376 1 2.2392733492229380e+00 8.0363165713211728e+00 1.2057893358063991e+01 0 1 1
474 1 3.5150231120745716e+00 7.5201091077314404e+00 9.8874992411090386e+00 0 0 1
42 1 7.5999407453512831e+00 1.1626535002534551e+01 8.9557465868971082e+00 1 0 3
115 1 8.3319901284681848e+00 1.0944715917506249e+01 1.2094451741213989e+01 -1 -2 0
445 1 7.8051382919245071e+00 1.3758374539883743e+01 1.0844501662987414e+01 0 0 1
444 1 7.4352611832588105e+00 1.2002590525305935e+01 1.2461720074423019e+01 1 -2 0
449 1 8.2070134947739604e+00 8.2154428603341234e+00 1.0055689394391086e+01 1 -1 -3
405 1 7.2738427035543216e+00 1.2973203587357361e+01 8.6904268549114931e+00 0 -3 1
370 1 6.9660260933121565e+00 1.3838067352963474e+01 9.7538413947788296e+00 0 -1 1
422 1 1.2801373702035923e+00 7.5195098857520604e+00 1.4611531394863897e+01 3 0 2
36 1 6.8775703989289223e+00 1.1592713948819844e+01 1.3721715234766680e+01 1 1 -1
446 1 3.2256645475962531e-01 1.0847080251213136e+01 1.5139961182578801e+01 2 0 2
148 1 6.4061899199612578e+00 1.3843312428877702e+01 1.4179446466269829e+01 3 -1 1
125 1 6.5332160774870607e+00 8.2295664268142250e+00 1.5699491648087697e+01 -1 0 0
456 1 7.7561328851120113e+00 1.0643279470993955e+01 1.4310789567944528e+01 1 0 0
79 1 8.2293934102885888e+00 1.1353011541660493e+01 1.6731655472066002e+01 -2 -2 -2
221 1 7.6767246427891411e+00 1.3895472041305128e+01 1.6307251075110756e+01 -1 0 -1
475 1 7.8002036243669624e+00 1.0464405279251995e+01 1.5709079535847808e+01 2 -1 -1
381 1 3.6907930171147019e-01 1.3776420431088276e+01 1.5971877414923837e+01 0 1 1
122 1 4.8679779205106239e+00 1.2343461293974340e+01 1.6594342018867980e+01 -1 -2 1
371 1 2.4188755275929292e+00 1.1717624275560878e+01 1.4259767797370417e+01 -2 2 -1
162 1 1.0422450619030548e+00 1.1686506260373903e+01 1.4263715333789809e+01 1 -2 0
278 1 7.2609802836678812e+00 9.3312649286857958e+00 1.6230132595031375e+01 -1 0 -1
427 1 4.8639546711618964e+00 1.2160895124730748e+01 1.5214344202086124e+01 0 -1 -1
327 1 3.6687117987295887e+00 1.2095779090226253e+01 1.4584149499977153e+01 0 0 -3
447 1 6.0451073058211788e+00 1.2504100546987610e+01 1.4424132314288912e+01 0 -1 1
431 1 9.8712483523961081e-01 8.7662877184613368e+00 1.4027088333199973e+01 0 -2 -1
313 1 5.3807238967324080e+00 7.7705978666795277e+00 1.6407868700625414e+01 2 0 2
351 1 1.8241597911625205e+00 8.2316321759939015e+00 1.6952369949444424e+01 2 2 -2
254 1 9.8998364137914341e-01 7.4294007181779333e+00 1.6018965421322612e+01 0 1 0
193 1 6.9492136759236560e+00 7.3856572909107907e+00 1.4654434877697005e+01 0 0 0
106 1 1.3349504393017815e+00 8.9574495611798159e+00 1.2703345823016667e+01 2 0 0
382 1 7.0231683961055973e+00 1.6894048755838259e+01 1.4353706831124153e+01 0 0 2
137 1 7.0538479884269805e+00 1.4633938637973241e+01 1.5148148885467847e+01 -2 -2 -1
68 1 8.8559412340357302e-01 1.6023450349292638e+01 1.6219492111609867e+01 -1 -1 -2
74 1 6.8118919436590977e+00 1.5999128106101786e+01 1.5389655524671552e+01 0 0 -1
303 1 1.2638624361114734e+00 1.4717760347966607e+01 1.6491194786737488e+01 -1 -1 -1
483 1 6.0883981590040470e+00 1.6233220032141578e+01 1.6580916934923469e+01 2 -2 -1
432 1 7.1163625240365636e-01 1.6310051146373542e+01 1.4861569269723967e+01 1 -2 -1
290 1 1.6575067570446653e+00 1.4214080038312405e+01 8.4950534396078528e+00 2 -2 -1
259 1 9.5249821925450862e-01 1.4291763720589138e+01 1.1081544815901141e+01 1 -1 0
93 1 1.8390768064765666e+00 1.4494188875857121e+01 9.8698197157056864e+00 2 1 0
312 1 2.7332936539973667e+00 1.5645185343196404e+01 1.0097029590151033e+01 0 0 1
92 1 1.5642309009077184e+00 1.6505988792920590e+01 1.1959328253445845e+01 0 1 1
352 1 6.5181855017697354e-01 1.5376761614393510e+01 1.1934372525798405e+01 1 -1 0
163 1 1.9625269587476255e+00 1.6837822773044120e+01 1.0593188070779307e+01 -1 -1 -1
488 1 7.5698411061147830e+00 1.6313254436091032e+01 1.3207183214261205e+01 2 0 0
192 1 6.7054891053913828e+00 1.5592238965035282e+01 8.1965055311992199e+00 -1 0 1
507 1 4.1233957595099220e+00 1.5726346939362919e+01 1.0054433412674619e+01 1 0 -1
76 1 6.3707694815201972e+00 1.5035759425623384e+01 9.3824268186283941e+00 0 1 1
464 1 5.5314559093851532e+00 1.5653516524207411e+01 1.0308812346135346e+01 -1 -1 -2
45 1 6.5712342778985944e+00 1.5587491951168152e+01 1.2485822949300580e+01 0 1 -1
62 1 5.9019091842131957e+00 1.6376129842850432e+01 1.1509400922292631e+01 1 0 1
54 1 6.5451780674401094e+00 1.4201770843065827e+01 1.2803979102978527e+01 2 -1 1
383 1 1.0966817973128981e+01 2.8316603290692339e+00 4.4741607664098408e+00 0 0 0
457 1 1.2536883463657812e+01 5.0937385696139810e+00 2.7838092313846734e+00 -2 1 0
209 1 1.2056385167398014e+01 2.1512939005670537e+00 2.1192318127020480e+00 -1 -1 0
6 1 1.0418594550933998e+01 5.0957708106908459e+00 1.5768149200829824e+00 -1 0 0
225 1 1.1219862172440514e+01 3.1543648994871476e+00 2.8440950730196275e+00 0 0 -1
308 1 9.7747800677032135e+00 2.6364106372262839e+00 3.4476066427287169e+00 1 1 0
505 1 8.8103846253976972e+00 3.4225156034286521e+00 1.0758558772931686e+00 1 0 0
237 1 1.1292956267219868e+01 1.5503824641612594e+00 1.0997747439497447e+00 -1 1 -1
466 1 1.1356938777352285e+01 4.5119981471421635e+00 2.3743756940857881e+00 1 -1 0
472 1 9.1089182646962605e+00 4.6764648839737308e+00 1.7448058039402812e+00 1 1 0
363 1 8.5419649921573235e+00 2.1477725110142454e+00 3.0585148461061582e+00 1 2 1
94 1 1.3283419313222760e+01 5.3829516339772807e+00 4.4683591239564635e-01 -1 0 1
310 1 1.3608873541305341e+01 5.3895709728057595e+00 1.8844598627049121e+00 0 0 0
249 1 1.2981658133993738e+01 4.9559517339963612e+00 4.1247977329398937e+00 1 -1 -1
468 1 1.6918765523807565e+01 3.3052421310960471e+00 1.9875877012349068e+00 -1 2 -2
410 1 1.5869303244051302e+01 2.3678626684903161e+00 2.1684992154001881e+00 -1 -1 1
402 1 1.3840721481244632e+01 1.4510600449878555e+00 3.7933529585549723e+00 -1 0 -1
265 1 1.6269271989818094e+01 1.0208634115827073e+00 2.3249290792271635e+00 1 1 1
179 1 1.3471645460566096e+01 1.9920458992743337e+00 2.5186710814023541e+00 -1 -1 2
484 1 1.4533818299261332e+01 2.4897443309664991e+00 1.6394912473042775e+00 1 -2 3
47 1 1.5274952538918916e+01 4.9854192603857381e+00 3.5573667943243317e+00 1 -1 0
489 1 1.6679063333327967e+01 4.6778356800545726e+00 3.8598200459555287e+00 2 -1 0
215 1 1.6496582615977118e+01 4.6293833379590881e+00 7.3325380981566770e+00 0 1 -2
153 1 1.6313828832511227e+01 1.1307652475633594e+00 6.6314052345258068e+00 -1 0 2
416 1 1.6138252447766348e+01 3.2131818764155873e+00 7.7228875683467928e+00 -1 0 1
297 1 1.5667087391854681e+01 2.3941574553894971e+00 6.7143712268955031e+00 0 -1 -1
123 1 1.3760270780135501e+01 1.9084763629798858e+00 5.1970564691935381e+00 -2 2 1
404 1 1.4672387831878746e+01 2.8796321163415941e+00 5.8360966095443612e+00 0 0 -1
7 1 1.4646962443234406e+01 4.3036991760157077e+00 5.7875308561631886e+00 -1 0 0
196 1 1.6864951467557688e+01 5.8996115230846591e-01 7.8085707561194209e+00 3 1 0
149 1 1.2874662867970299e+01 9.8933768656601662e-01 5.9150559838287391e+00 -1 0 1
307 1 1.5330434013397813e+01 5.2512907058061975e+00 6.5517288207060389e+00 -1 -1 3
168 1 1.4301825595085662e+01 4.7734987361705574e+00 4.4816682762520097e+00 1 1 2
228 1 1.1391987807735166e+01 3.8127083341749235e-01 8.7942437068107608e+00 -1 1 1
387 1 1.1909876930937516e+01 1.5727962742619239e+00 6.7901163440669858e+00 3 0 1
289 1 1.1493983105394912e+01 3.5378639102097398e+00 5.5165240070872210e+00 -1 2 1
451 1 1.1506134077051916e+01 3.5768013491694068e+00 8.0675770244097329e+00 -1 0 0
187 1 1.1984171757256764e+01 4.8448290982735323e+00 5.1818254272781017e+00 -1 0 1
130 1 1.1100717418162045e+01 6.5589717288845129e-01 7.4481866741494951e+00 0 -1 -1
91 1 1.1014172095344238e+01 4.8777529332926992e+00 8.2624068909616266e+00 -3 2 -1
349 1 1.1640691916505345e+01 2.9499822953933088e+00 6.7714670494684688e+00 -1 1 -2
53 1 1.0592198251103641e+01 5.5313064005708394e+00 7.0276225579678613e+00 -2 -3 0
110 1 1.2918081156303066e+01 6.9861154153937726e+00 8.4472473276204028e+00 -1 2 0
319 1 1.0016894677618824e+01 8.4471951010090489e+00 7.5655027176419649e+00 -1 -1 1
171 1 1.0733051421458551e+01 6.0084076064498060e+00 5.7674460499440294e-01 -1 1 1
199 1 1.1550546036761759e+01 5.8387678910111855e+00 6.0640051854187575e+00 -1 0 1
288 1 9.3876157131663174e+00 6.2317044771199335e+00 6.8090110680187292e+00 0 0 0
273 1 1.5705294789442620e+01 6.6129314261943408e+00 1.7848148985353318e+00 1 1 1
511 1 1.4375473729065703e+01 7.6171061110907159e+00 6.4895503438782365e+00 0 2 -1
497 1 1.5374149425894636e+01 6.6625750070407417e+00 6.3781675646906137e+00 0 -1 1
384 1 1.6536567153238167e+01 7.3045134053653706e+00 5.9778086798559071e+00 -2 0 -1
158 1 9.0339952520650613e+00 7.4516151062838798e+00 7.3279638291115887e+00 1 -1 1
65 1 1.2045901651186954e+01 7.1497480626803833e+00 6.1508652086180229e+00 -2 0 -1
40 1 1.5939430789120602e+01 7.9831495171428291e+00 2.3965835943573297e+00 -2 1 -1
361 1 1.6092991366441861e+01 6.0438123042646330e+00 5.3021229858244578e-01 1 -1 1
136 1 8.8290218398085294e+00 7.3620705052592204e+00 1.1860310836145169e+00 1 -2 0
341 1 1.3141403724919138e+01 7.2207834040825869e+00 7.0746713010561724e+00 0 -1 -1
48 1 1.1550774081233891e+01 8.3827565988700066e+00 5.6598457745964454e+00 -2 0 -1
146 1 1.4879386178113878e+01 5.7222137680985101e+00 2.4442025707602397e+00 -1 2 -1
452 1 1.0704667137430713e+01 8.2376174393441524e+00 8.7607182735187816e+00 0 0 0
186 1 8.7993316339617866e+00 8.7426496273654415e+00 1.2815230314236326e+00 -1 1 0
415 1 1.4395823631273025e+01 8.9552409253650698e+00 5.8089760764535070e+00 -1 1 0
368 1 1.6951787847855865e+01 8.4323475548008364e+00 6.6015783616293033e+00 -1 1 -1
169 1 1.1017325603140803e+01 4.2481794035199227e+00 1.0935691934576194e+01 0 0 0
34 1 9.7553509528630702e+00 1.4989738660238650e+00 1.1217321543013911e+01 -2 0 -1
33 1 8.9795955910848022e+00 2.5790213064490746e+00 1.0512425066522528e+01 -2 0 1
337 1 1.1174131205456396e+01 1.3486810857673350e+00 1.0970842771843049e+01 0 1 -1
438 1 9.8214865510810636e+00 3.5438757748884919e+00 1.1418126431244225e+01 -1 1 -1
380 1 9.3044625100715148e+00 1.0166810745267154e+00 1.2473001532575926e+01 0 -1 1
433 1 1.0844320495049024e+01 5.6362777647571116e+00 1.0748455824123024e+01 0 -1 -1
26 1 1.0931860248732008e+01 5.8505714852312760e+00 9.3756591524192689e+00 -1 -1 1
190 1 1.1509620888815979e+01 1.5005994863428955e+00 9.6021946853665625e+00 1 -1 1
453 1 1.2216617738344656e+01 1.0996985691925865e+00 1.1884853095060631e+01 0 -1 -1
338 1 1.2222454450291542e+01 3.5763027584471399e+00 1.0489230244759975e+01 -3 0 -2
13 1 1.1909107828047103e+01 2.8205234761051297e+00 9.3054264590001967e+00 0 2 1
25 1 9.3620246367078153e+00 3.0008286526609416e+00 1.3867680415624971e+01 1 1 -1
59 1 1.1292303639790058e+01 8.5733331705205220e+00 1.1263062977335196e+01 -1 -1 2
469 1 1.0097414791789602e+01 8.2923912160734901e+00 1.3417167487107330e+01 1 -1 0
467 1 1.0310261180791077e+01 6.3131425229693567e+00 1.1909882969991921e+01 1 0 0
304 1 1.0523525868272035e+01 7.7223607246610833e+00 1.2207896664675406e+01 0 0 -1
490 1 1.1533893912138932e+01 7.1019057866522690e+00 8.9527858585689959e+00 -1 -1 0
277 1 9.8692835783122277e+00 1.6237660847343078e+00 1.3626439965278099e+01 -1 -1 -2
44 1 9.4245925863920945e+00 4.0110652706315504e+00 1.2752718443591208e+01 0 -1 -2
164 1 9.3875957089456765e+00 5.5045239365274679e+00 1.2730272833700258e+01 1 0 -1
458 1 1.3484338780929113e+01 2.4258887946817067e+00 1.3800332187528868e+01 1 0 -1
430 1 1.2672266044829501e+01 8.9106178802626061e+00 1.1370573060109093e+01 -1 -1 0
495 1 1.5883004061408077e+01 5.0863633193543567e+00 1.2906334477011663e+01 -1 0 -2
166 1 1.5152058021520515e+01 3.8781121425501519e+00 1.2850504786047718e+01 0 0 1
441 1 1.6546378105494107e+01 3.6371925051860425e+00 1.0020962201115861e+01 -1 1 1
463 1 1.5425184495419513e+01 4.2551323686798010e+00 1.0650085022927833e+01 -1 -1 -2
300 1 1.5220107056406111e+01 5.6717303008731088e+00 1.0803227130003664e+01 0 -1 1
276 1 1.4642656291267912e+01 3.5708796291662614e+00 1.1554676209705246e+01 2 -1 0
263 1 1.5388005231478102e+01 6.1179104128124564e+00 1.2096545125418741e+01 0 0 0
390 1 1.6340836123116070e+01 2.6632652301843280e+00 8.9779224782726530e+00 1 -1 -2
244 1 1.2912805451494409e+01 2.2135851783881728e+00 1.2487725839626128e+01 -1 0 0
157 1 1.3266573059337553e+01 3.1880477087799726e+00 1.1527271137521502e+01 -1 -1 0
348 1 1.5103724054114899e+01 6.3512915280287343e+00 9.5751257874879148e+00 0 1 0
77 1 1.4330123002524594e+01 8.4761639871237140e+00 9.6472494986077049e+00 -2 2 0
270 1 1.5797834961838989e+01 8.8588681299298617e+00 9.9072952196753583e+00 -1 1 0
461 1 1.5903133480844819e+01 8.9337722533796597e+00 1.1440472396424626e+01 -2 2 -1
64 1 1.4057457129175713e+01 7.1835803214019682e+00 9.2524358738012733e+00 -1 0 0
178 1 1.6646598316386353e+01 7.9070784346794349e+00 8.9778333011799276e+00 1 -2 -1
69 1 1.6287615619631389e+01 6.6250051336285178e+00 8.9504758790117531e+00 -2 0 -3
509 1 1.4839027984926231e+01 8.4630942491425802e+00 1.2218532608255773e+01 0 0 -1
492 1 1.4983917869634951e+01 7.1962446648767733e+00 1.2872501365268919e+01 0 1 -1
434 1 1.5433176242333133e+01 7.6375936940812910e+00 1.5220182484739883e+01 1 -1 0